/*--------------------------------*- C++ -*----------------------------------*\
| =========                 |                                                 |
| \\      /  F ield         | OpenFOAM: The Open Source CFD Toolbox           |
|  \\    /   O peration     | Version:  2.4.x                                 |
|   \\  /    A nd           | Web:      www.OpenFOAM.org                      |
|    \\/     M anipulation  |                                                 |
\*---------------------------------------------------------------------------*/
FoamFile
{
    version     2.0;
    format      ascii;
    class       volVectorField;
    location    "0/filmRegion";
    object      Uf;
}
// * * * * * * * * * * * * * * * * * * * * * * * * * * * * * * * * * * * * * //

dimensions      [0 1 -1 0 0 0 0];

internalField   uniform (1e-10 1e-10 1e-10);

boundaryField
{
    // cyclic boundaries between film patches
    "(box_[xyz]norm_[mp]_to_box_[xyz]norm_[mp])"
    {
        type            nonuniformTransformCyclic;
    }

    // top film surface
    "(.*_top)"
    {
        type            slip;
    }

    // mapped boundaries
    "(box_[xyz]norm_[mp])"
    {
        type            fixedValue;
        value           uniform (0 0 0);
    }

}

// ************************************************************************* //
