# Source    : facePostProcessing
# Face zone : sampleFaces1
# Faces     : 400
# Area      : 144
# Time	mass	massFlowRate
1	4.57588	4.57588
2	12.5648	7.98888
