# Source    : facePostProcessing
# Face zone : sampleFaces2
# Faces     : 400
# Area      : 144
# Time	mass	massFlowRate
1	0.107747	0.107747
2	1.66347	1.55572
