# Source    : facePostProcessing
# Face zone : sampleFaces2
# Faces     : 400
# Area      : 144
# Time	mass	massFlowRate
1	0.108093	0.108093
2	1.66309	1.55499
