# Source    : facePostProcessing
# Face zone : sampleFaces2
# Faces     : 400
# Area      : 144
# Time	mass	massFlowRate
1	0.1033	0.1033
2	1.6209	1.5176
