# Source    : facePostProcessing
# Face zone : sampleFaces1
# Faces     : 400
# Area      : 144
# Time	mass	massFlowRate
1	4.57574	4.57574
2	12.5648	7.98902
