# Source    : facePostProcessing
# Face zone : sampleFaces1
# Faces     : 400
# Area      : 144
# Time	mass	massFlowRate
1	3.74944	3.74944
2	11.7621	8.01263
