/*--------------------------------*- C++ -*----------------------------------*\
| =========                 |                                                 |
| \\      /  F ield         | OpenFOAM: The Open Source CFD Toolbox           |
|  \\    /   O peration     | Version:  2.2.x                                 |
|   \\  /    A nd           | Web:      www.OpenFOAM.org                      |
|    \\/     M anipulation  |                                                 |
\*---------------------------------------------------------------------------*/
FoamFile
{
    version     2.0;
    format      ascii;
    class       volScalarField;
    location    "0";
    object      IDefault;
}
// * * * * * * * * * * * * * * * * * * * * * * * * * * * * * * * * * * * * * //

dimensions      [1 0 -3 0 0 0 0];

internalField   uniform 0;

boundaryField
{
    top
    {
        type            greyDiffusiveRadiation;
        T               T;
        emissivityMode  lookup;
        emissivity      uniform 1;
        value           uniform 0;
    }
    sides
    {
        type            greyDiffusiveRadiation;
        T               T;
        emissivityMode  lookup;
        emissivity      uniform 1;
        value           uniform 0;
    }
    base
    {
        type            greyDiffusiveRadiation;
        T               T;
        emissivityMode  lookup;
        emissivity      uniform 1;
        value           uniform 0;
    }
    burner
    {
        type            greyDiffusiveRadiation;
        T               T;
        emissivityMode  lookup;
        emissivity      uniform 1;
        value           uniform 0;
    }
    floor
    {
        type            greyDiffusiveRadiation;
        T               T;
        emissivityMode  lookup;
        emissivity      uniform 1;
        value           uniform 0;
    }
    baffle1DWall_master
    {
        type            greyDiffusiveRadiation;
        T               T;
        emissivityMode  lookup;
        emissivity      uniform 1;
        value           uniform 0;
    }
    baffle1DWall_slave
    {
        type            greyDiffusiveRadiation;
        T               T;
        emissivityMode  lookup;
        emissivity      uniform 1;
        value           uniform 0;
    }
}


// ************************************************************************* //
